HEADER
"PSFversion" "1.00"
"Time Stamp" "Oct 13 21:49:41 2015"
TYPE
"variable" STRUCT(
"value" FLOAT DOUBLE
) PROP( "key" "element" )
VALUE
"temp" "variable" ( 27 ) PROP( )
END
