HEADER
"PSFversion" "1.00"
"Time Stamp" "Oct 14 21:27:52 2015"
TYPE
"variable" STRUCT(
"value" FLOAT DOUBLE
) PROP( "key" "element" )
VALUE
"temp" "variable" ( 27 ) PROP( )
END
