HEADER
"PSFversion" "1.00"
"C129n C128n C127n C126n C125n C124n C123n C122n C130n" "UMC_18_CMOS_MIMCAPS_MM_spectre"
"M0n" "UMC_18_CMOS_P_18_MM_spectre"
"M1n" "UMC_18_CMOS_N_18_MM_spectre"
"D0v" ":1v"
"D1v" ":2v"
"D2v" ":3v"
"D3v" ":4v"
"D4v" ":5v"
"D5v" ":6v"
"D6v" ":7v"
"D7v" ":8v"
"DGv" ":9v"
"ResetNv" ":10v"
"ResetPv" ":11v"
"VDACv" ":12v"
"VDDv" ":13v"
"VREFNv" ":14v"
"VSSv" ":15v"
