HEADER
"PSFversion" "1.00"
"M162n M159n M11n M19n M160n M158n M5n M3n M161n" "UMC_18_CMOS_P_18_MM_spectre"
"M28n M10n M4n M6n M2n M18n M8n M31n M29n" "UMC_18_CMOS_N_18_MM_spectre"
"D0v" ":1v"
"D1v" ":2v"
"D2v" ":3v"
"D3v" ":4v"
"D4v" ":5v"
"D5v" ":6v"
"D6v" ":7v"
"D7v" ":8v"
"DGv" ":9v"
"Q0v" ":10v"
"Q1v" ":11v"
"Q2v" ":12v"
"Q3v" ":13v"
"Q4v" ":14v"
"Q5v" ":15v"
"Q6v" ":16v"
"Q7v" ":17v"
"QGv" ":18v"
"VDDv" ":19v"
"VREFNv" ":20v"
"VREFPv" ":21v"
"VSSv" ":22v"
