HEADER
"PSFversion" "1.00"
"V1n" "analogLib_vsin_spectre"
"I0n" "DriverNetWork"
"V16n V38n V37n V40n" "analogLib_vdc_spectre"
"I13n" "SARImprScasub"
"I4n" "SampleAndHold"
"V8n" "analogLib_vpulse_spectre"
"V2n V0n" "analogLib_vpwl_spectre"
"I1n" "CapacitiveDAC"
"I3n" "ClockGenerator"
"I2n" "ComparatorCkt"
