HEADER
"PSFversion" "1.00"
"design" "(\"AtoDConverters\" \"ScasubNormSAR\" \"schematic\" \"\")"
"simulator" "spectre"
"temperature" "27"
"host" ""
"date" "Oct 14 12:47:11 2015"
"title" ""
"analysisList" "()"
END
