HEADER
"PSFversion" "1.00"
"simulator" "spectre"
"version" "11.1.0.487.isr13"
"date" "3:01:06 PM, Wed Oct 14, 2015"
"design" "// Generated for: spectre"
"analysis type" "info"
"analysis name" "designParamVals"
"analysis description" "Circuit Information"
"xVecSorted" "unknown"
"tolerance.relative" 0.00100000
TYPE
"top-level" STRUCT(
"temp" FLOAT DOUBLE
"tnom" FLOAT DOUBLE
"time" FLOAT DOUBLE
"dcd_n_18_rf" FLOAT DOUBLE
"dcgs_n_18_rf" FLOAT DOUBLE
"drgate_n_18_rf" FLOAT DOUBLE
"dtox_n_18_rf" FLOAT DOUBLE
"dxl_n_18_rf" FLOAT DOUBLE
"dxw_n_18_rf" FLOAT DOUBLE
"dvth0_n_18_rf" FLOAT DOUBLE
"du0_n_18_rf" FLOAT DOUBLE
"dlvth0_n_18_rf" FLOAT DOUBLE
"dwvth0_n_18_rf" FLOAT DOUBLE
"dwu0_n_18_rf" FLOAT DOUBLE
"dpvth0_n_18_rf" FLOAT DOUBLE
"dpvsat_n_18_rf" FLOAT DOUBLE
"dcf_n_18_rf" FLOAT DOUBLE
"dcgdo_n_18_rf" FLOAT DOUBLE
"dcgdl_n_18_rf" FLOAT DOUBLE
"dcgso_n_18_rf" FLOAT DOUBLE
"dcgsl_n_18_rf" FLOAT DOUBLE
"dcj_n_18_rf" FLOAT DOUBLE
"dcjsw_n_18_rf" FLOAT DOUBLE
"dcjgate_n_18_rf" FLOAT DOUBLE
"dcd_p_18_rf" FLOAT DOUBLE
"dcgs_p_18_rf" FLOAT DOUBLE
"drgate_p_18_rf" FLOAT DOUBLE
"dcgdl_p_18_rf" FLOAT DOUBLE
"dcgsl_p_18_rf" FLOAT DOUBLE
"dcf_p_18_rf" FLOAT DOUBLE
"dtox_p_18_rf" FLOAT DOUBLE
"du0_p_18_rf" FLOAT DOUBLE
"dxl_p_18_rf" FLOAT DOUBLE
"dxw_p_18_rf" FLOAT DOUBLE
"dvth0_p_18_rf" FLOAT DOUBLE
"dlvth0_p_18_rf" FLOAT DOUBLE
"dwvth0_p_18_rf" FLOAT DOUBLE
"dpvth0_p_18_rf" FLOAT DOUBLE
"dpvsat_p_18_rf" FLOAT DOUBLE
"dcgdo_p_18_rf" FLOAT DOUBLE
"dcgso_p_18_rf" FLOAT DOUBLE
"dcj_p_18_rf" FLOAT DOUBLE
"dcjsw_p_18_rf" FLOAT DOUBLE
"dcjgate_p_18_rf" FLOAT DOUBLE
"dcgs_n_33_rf" FLOAT DOUBLE
"drgate_n_33_rf" FLOAT DOUBLE
"dcd_n_33_rf" FLOAT DOUBLE
"dcj_n_33_rf" FLOAT DOUBLE
"dcjsw_n_33_rf" FLOAT DOUBLE
"dcjgate_n_33_rf" FLOAT DOUBLE
"dcf_n_33_rf" FLOAT DOUBLE
"dtox_n_33_rf" FLOAT DOUBLE
"dlint_n_33_rf" FLOAT DOUBLE
"dwint_n_33_rf" FLOAT DOUBLE
"dvth0_n_33_rf" FLOAT DOUBLE
"dcgdo_n_33_rf" FLOAT DOUBLE
"dcgso_n_33_rf" FLOAT DOUBLE
"dcgs_p_33_rf" FLOAT DOUBLE
"drgate_p_33_rf" FLOAT DOUBLE
"dcd_p_33_rf" FLOAT DOUBLE
"dcj_p_33_rf" FLOAT DOUBLE
"dcjsw_p_33_rf" FLOAT DOUBLE
"dcjgate_p_33_rf" FLOAT DOUBLE
"dcf_p_33_rf" FLOAT DOUBLE
"dtox_p_33_rf" FLOAT DOUBLE
"dlint_p_33_rf" FLOAT DOUBLE
"dwint_p_33_rf" FLOAT DOUBLE
"dvth0_p_33_rf" FLOAT DOUBLE
"dcgdo_p_33_rf" FLOAT DOUBLE
"dcgso_p_33_rf" FLOAT DOUBLE
"dw_l_rf" FLOAT DOUBLE
"dt_l_rf" FLOAT DOUBLE
"drs_l_rf" FLOAT DOUBLE
"dcp_l_rf" FLOAT DOUBLE
"dcox_l_rf" FLOAT DOUBLE
"dls_l_rf" FLOAT DOUBLE
"dr_mim_rf" FLOAT DOUBLE
"dcox1_mim_rf" FLOAT DOUBLE
"dcox2_mim_rf" FLOAT DOUBLE
"dcn_mim_rf" FLOAT DOUBLE
"dCm_mimcaps_mm" FLOAT DOUBLE
"dCmf_mimcaps_mm" FLOAT DOUBLE
"dtox_n_bpw_18_mm" FLOAT DOUBLE
"dxl_n_bpw_18_mm" FLOAT DOUBLE
"dxw_n_bpw_18_mm" FLOAT DOUBLE
"dvth0_n_bpw_18_mm" FLOAT DOUBLE
"du0_n_bpw_18_mm" FLOAT DOUBLE
"dlvth0_n_bpw_18_mm" FLOAT DOUBLE
"dwvth0_n_bpw_18_mm" FLOAT DOUBLE
"dwu0_n_bpw_18_mm" FLOAT DOUBLE
"dpvth0_n_bpw_18_mm" FLOAT DOUBLE
"dpvsat_n_bpw_18_mm" FLOAT DOUBLE
"dcgdo_n_bpw_18_mm" FLOAT DOUBLE
"dcgso_n_bpw_18_mm" FLOAT DOUBLE
"dcj_n_bpw_18_mm" FLOAT DOUBLE
"dcjsw_n_bpw_18_mm" FLOAT DOUBLE
"dcjgate_n_bpw_18_mm" FLOAT DOUBLE
"dtox_n_18_mm" FLOAT DOUBLE
"dxl_n_18_mm" FLOAT DOUBLE
"dxw_n_18_mm" FLOAT DOUBLE
"dvth0_n_18_mm" FLOAT DOUBLE
"du0_n_18_mm" FLOAT DOUBLE
"dlvth0_n_18_mm" FLOAT DOUBLE
"dwvth0_n_18_mm" FLOAT DOUBLE
"dwu0_n_18_mm" FLOAT DOUBLE
"dpvth0_n_18_mm" FLOAT DOUBLE
"dpvsat_n_18_mm" FLOAT DOUBLE
"dcgdo_n_18_mm" FLOAT DOUBLE
"dcgso_n_18_mm" FLOAT DOUBLE
"dcj_n_18_mm" FLOAT DOUBLE
"dcjsw_n_18_mm" FLOAT DOUBLE
"dcjgate_n_18_mm" FLOAT DOUBLE
"dtox_p_18_mm" FLOAT DOUBLE
"du0_p_18_mm" FLOAT DOUBLE
"dxl_p_18_mm" FLOAT DOUBLE
"dxw_p_18_mm" FLOAT DOUBLE
"dvth0_p_18_mm" FLOAT DOUBLE
"dlvth0_p_18_mm" FLOAT DOUBLE
"dwvth0_p_18_mm" FLOAT DOUBLE
"dpvth0_p_18_mm" FLOAT DOUBLE
"dpvsat_p_18_mm" FLOAT DOUBLE
"dcgdo_p_18_mm" FLOAT DOUBLE
"dcgso_p_18_mm" FLOAT DOUBLE
"dcj_p_18_mm" FLOAT DOUBLE
"dcjsw_p_18_mm" FLOAT DOUBLE
"dcjgate_p_18_mm" FLOAT DOUBLE
"dtox_n_bpw_33_mm" FLOAT DOUBLE
"dlint_n_bpw_33_mm" FLOAT DOUBLE
"dwint_n_bpw_33_mm" FLOAT DOUBLE
"dvth0_n_bpw_33_mm" FLOAT DOUBLE
"dcgdo_n_bpw_33_mm" FLOAT DOUBLE
"dcgso_n_bpw_33_mm" FLOAT DOUBLE
"dtox_n_33_mm" FLOAT DOUBLE
"dlint_n_33_mm" FLOAT DOUBLE
"dwint_n_33_mm" FLOAT DOUBLE
"dvth0_n_33_mm" FLOAT DOUBLE
"dcgdo_n_33_mm" FLOAT DOUBLE
"dcgso_n_33_mm" FLOAT DOUBLE
"dtox_p_33_mm" FLOAT DOUBLE
"dlint_p_33_mm" FLOAT DOUBLE
"dwint_p_33_mm" FLOAT DOUBLE
"dvth0_p_33_mm" FLOAT DOUBLE
"dcgdo_p_33_mm" FLOAT DOUBLE
"dcgso_p_33_mm" FLOAT DOUBLE
"drend_rnnpo_mm" FLOAT DOUBLE
"drs_rnnpo_mm" FLOAT DOUBLE
"ddw_rnnpo_mm" FLOAT DOUBLE
"drend_rnppo_mm" FLOAT DOUBLE
"drs_rnppo_mm" FLOAT DOUBLE
"ddw_rnppo_mm" FLOAT DOUBLE
"drend_rnhr1000_mm" FLOAT DOUBLE
"drs_rnhr1000_mm" FLOAT DOUBLE
"ddw_rnhr1000_mm" FLOAT DOUBLE
"dtox_n_zero_18_mm" FLOAT DOUBLE
"dlint_n_zero_18_mm" FLOAT DOUBLE
"dwint_n_zero_18_mm" FLOAT DOUBLE
"dvth0_n_zero_18_mm" FLOAT DOUBLE
"dcgdo_n_zero_18_mm" FLOAT DOUBLE
"dcgso_n_zero_18_mm" FLOAT DOUBLE
"dc_pad_rf" FLOAT DOUBLE
"ddw_rnhr_rf" FLOAT DOUBLE
"drsh_rnhr_rf" FLOAT DOUBLE
"dcox_rnhr_rf" FLOAT DOUBLE
"ddw_rnnpo_rf" FLOAT DOUBLE
"drsh_rnnpo_rf" FLOAT DOUBLE
"dcox_rnnpo_rf" FLOAT DOUBLE
"ddw_rnppo_rf" FLOAT DOUBLE
"drsh_rnppo_rf" FLOAT DOUBLE
"dcox_rnppo_rf" FLOAT DOUBLE
"dcj_vardiop_rf" FLOAT DOUBLE
"dcjsw_vardiop_rf" FLOAT DOUBLE
"drgate_mis_rf" FLOAT DOUBLE
"dcbox_mis_rf" FLOAT DOUBLE
"dxl_mis_rf" FLOAT DOUBLE
"dxw_mis_rf" FLOAT DOUBLE
"dcj_mis_rf" FLOAT DOUBLE
"dcjsw_mis_rf" FLOAT DOUBLE
"dtox_mis_rf" FLOAT DOUBLE
"dcgdo_mis_rf" FLOAT DOUBLE
"dcgso_mis_rf" FLOAT DOUBLE
"dcf_mis_rf" FLOAT DOUBLE
) PROP(
"key" "parameters"
)
VALUE
"top-level" "top-level" (
2.700000000000000e+01
2.700000000000000e+01
0.000000000000000e+00
0.000000000000000e+00
0.000000000000000e+00
0.000000000000000e+00
0.000000000000000e+00
0.000000000000000e+00
0.000000000000000e+00
0.000000000000000e+00
0.000000000000000e+00
0.000000000000000e+00
0.000000000000000e+00
0.000000000000000e+00
0.000000000000000e+00
0.000000000000000e+00
0.000000000000000e+00
0.000000000000000e+00
0.000000000000000e+00
0.000000000000000e+00
0.000000000000000e+00
0.000000000000000e+00
0.000000000000000e+00
0.000000000000000e+00
0.000000000000000e+00
0.000000000000000e+00
0.000000000000000e+00
0.000000000000000e+00
0.000000000000000e+00
0.000000000000000e+00
0.000000000000000e+00
0.000000000000000e+00
0.000000000000000e+00
0.000000000000000e+00
0.000000000000000e+00
0.000000000000000e+00
0.000000000000000e+00
0.000000000000000e+00
0.000000000000000e+00
0.000000000000000e+00
0.000000000000000e+00
0.000000000000000e+00
0.000000000000000e+00
0.000000000000000e+00
0.000000000000000e+00
0.000000000000000e+00
0.000000000000000e+00
0.000000000000000e+00
0.000000000000000e+00
0.000000000000000e+00
0.000000000000000e+00
0.000000000000000e+00
0.000000000000000e+00
0.000000000000000e+00
0.000000000000000e+00
0.000000000000000e+00
0.000000000000000e+00
0.000000000000000e+00
0.000000000000000e+00
0.000000000000000e+00
0.000000000000000e+00
0.000000000000000e+00
0.000000000000000e+00
0.000000000000000e+00
0.000000000000000e+00
0.000000000000000e+00
0.000000000000000e+00
0.000000000000000e+00
0.000000000000000e+00
0.000000000000000e+00
0.000000000000000e+00
0.000000000000000e+00
0.000000000000000e+00
0.000000000000000e+00
0.000000000000000e+00
0.000000000000000e+00
0.000000000000000e+00
0.000000000000000e+00
0.000000000000000e+00
0.000000000000000e+00
0.000000000000000e+00
0.000000000000000e+00
0.000000000000000e+00
0.000000000000000e+00
0.000000000000000e+00
0.000000000000000e+00
0.000000000000000e+00
0.000000000000000e+00
0.000000000000000e+00
0.000000000000000e+00
0.000000000000000e+00
0.000000000000000e+00
0.000000000000000e+00
0.000000000000000e+00
0.000000000000000e+00
0.000000000000000e+00
0.000000000000000e+00
0.000000000000000e+00
0.000000000000000e+00
0.000000000000000e+00
0.000000000000000e+00
0.000000000000000e+00
0.000000000000000e+00
0.000000000000000e+00
0.000000000000000e+00
0.000000000000000e+00
0.000000000000000e+00
0.000000000000000e+00
0.000000000000000e+00
0.000000000000000e+00
0.000000000000000e+00
0.000000000000000e+00
0.000000000000000e+00
0.000000000000000e+00
0.000000000000000e+00
0.000000000000000e+00
0.000000000000000e+00
0.000000000000000e+00
0.000000000000000e+00
0.000000000000000e+00
0.000000000000000e+00
0.000000000000000e+00
0.000000000000000e+00
0.000000000000000e+00
0.000000000000000e+00
0.000000000000000e+00
0.000000000000000e+00
0.000000000000000e+00
0.000000000000000e+00
0.000000000000000e+00
0.000000000000000e+00
0.000000000000000e+00
0.000000000000000e+00
0.000000000000000e+00
0.000000000000000e+00
0.000000000000000e+00
0.000000000000000e+00
0.000000000000000e+00
0.000000000000000e+00
0.000000000000000e+00
0.000000000000000e+00
0.000000000000000e+00
0.000000000000000e+00
0.000000000000000e+00
0.000000000000000e+00
0.000000000000000e+00
0.000000000000000e+00
0.000000000000000e+00
0.000000000000000e+00
0.000000000000000e+00
0.000000000000000e+00
0.000000000000000e+00
0.000000000000000e+00
0.000000000000000e+00
0.000000000000000e+00
0.000000000000000e+00
0.000000000000000e+00
0.000000000000000e+00
0.000000000000000e+00
0.000000000000000e+00
0.000000000000000e+00
0.000000000000000e+00
0.000000000000000e+00
0.000000000000000e+00
0.000000000000000e+00
0.000000000000000e+00
0.000000000000000e+00
0.000000000000000e+00
0.000000000000000e+00
0.000000000000000e+00
0.000000000000000e+00
0.000000000000000e+00
0.000000000000000e+00
0.000000000000000e+00
0.000000000000000e+00
0.000000000000000e+00
0.000000000000000e+00
0.000000000000000e+00
0.000000000000000e+00
0.000000000000000e+00
0.000000000000000e+00
)
END
