HEADER
"PSFversion" "1.00"
"design" "(\"AtoDConverters\" \"ScasubImprSAR\" \"schematic\" \"\")"
"simulator" "spectre"
"temperature" "27"
"host" ""
"date" "Oct 13 21:47:40 2015"
"title" ""
"analysisList" "()"
END
