HEADER
"PSFversion" "1.00"
"I0n I0n" "analogLib_scasubckt_spectre"
"Clockv" ":1v"
"ClockCmpv" ":2v"
"ClockTckv" ":3v"
"Comparev" ":4v"
"DataOut<0>v" ":5v"
"DataOut<1>v" ":6v"
"DataOut<2>v" ":7v"
"DataOut<3>v" ":8v"
"DataOut<4>v" ":9v"
"DataOut<5>v" ":10v"
"DataOut<6>v" ":11v"
"DataOut<7>v" ":12v"
"Readyv" ":13v"
"Resetv" ":14v"
"ResetNv" ":15v"
"ResetPv" ":16v"
"SAROut<0>v" ":17v"
"SAROut<1>v" ":18v"
"SAROut<2>v" ":19v"
"SAROut<3>v" ":20v"
"SAROut<4>v" ":21v"
"SAROut<5>v" ":22v"
"SAROut<6>v" ":23v"
"SAROut<7>v" ":24v"
"SAROutGv" ":25v"
